ITEM: TIMESTEP
0
ITEM: NUMBER OF ATOMS
20
ITEM: BOX BOUNDS pp pp ff
-1.5000000000000000e+01 1.5000000000000000e+01
-1.5000000000000000e+01 1.5000000000000000e+01
-1.5000000000000000e+01 1.5000000000000000e+01
ITEM: ATOMS id type xu yu zu vx vy vz
1 1 -42.5624 40.7782 0.975842 -1.31004 -1.41732 0.00752472
2 2 -42.7146 40.228 0.152638 -0.569636 -0.414833 1.32426
3 2 -43.1734 39.4093 -0.209765 -0.7552 0.177437 1.92496
4 2 -44.1293 39.4929 -0.473438 -0.472435 -0.312505 -1.95638
5 2 -44.0088 38.5726 -0.147367 -0.831773 0.494986 0.596552
6 2 -43.4667 38.0375 0.525929 0.428101 -0.0387132 -0.401953
7 2 -43.9609 37.2809 0.0773264 -0.0736069 -0.70879 -0.780439
8 2 -43.8718 36.3785 0.492223 -1.27126 0.805324 -0.318477
9 2 -44.0115 35.9938 -0.417994 -0.0204314 0.266733 1.28433
10 2 -44.7645 36.65 -0.377986 0.399184 -1.09899 -0.136618
11 2 -44.8293 37.6529 -0.498808 -0.868958 -0.442561 0.378288
12 2 -45.1274 38.6137 -0.590057 -0.844831 -0.982836 1.54142
13 2 -46.0317 38.1537 -0.640578 0.414173 -0.56926 0.341674
14 2 -46.0755 38.6415 0.239914 0.434292 0.743489 0.912177
15 2 -46.9261 39.1718 0.405325 -0.0515884 -0.0992916 0.371939
16 2 -47.7948 38.6741 0.404479 -1.61896 0.0132636 -0.0483359
17 2 -47.4035 38.004 -0.201969 0.719044 -2.44688 -0.592214
18 2 -46.7406 37.6141 0.452663 -1.16049 0.0579824 -0.221009
19 2 -46.3156 36.7418 0.681285 0.943803 -0.997873 -0.856317
20 3 -46.7061 35.8764 0.36502 0.761638 -0.186545 -0.772189
ITEM: TIMESTEP
100000
ITEM: NUMBER OF ATOMS
20
ITEM: BOX BOUNDS pp pp ff
-1.5000000000000000e+01 1.5000000000000000e+01
-1.5000000000000000e+01 1.5000000000000000e+01
-1.5000000000000000e+01 1.5000000000000000e+01
ITEM: ATOMS id type xu yu zu vx vy vz
1 1 -43.1448 41.598 -0.0573425 1.14467 -0.3739 0.7396
2 2 -42.3495 41.0386 0.115131 -0.288391 -1.69729 -1.07999
3 2 -42.9781 40.6157 -0.542152 -0.136255 -0.583748 -0.108113
4 2 -43.9241 40.244 -0.559132 1.30274 1.67272 -0.406862
5 2 -43.696 39.3237 -0.834389 1.09193 -1.67954 -0.733682
6 2 -43.7717 38.505 -0.288057 -0.501798 0.358458 0.408286
7 2 -43.4105 37.8307 0.380684 0.254336 -0.739302 0.315205
8 2 -43.0897 36.9605 0.0485862 0.0174103 0.375035 -0.0818785
9 2 -43.6608 36.4119 0.669334 0.102341 -1.5974 -0.182668
10 2 -44.617 36.1479 0.523675 0.880387 1.04076 -0.683608
11 2 -44.9997 36.6415 -0.249521 -1.4865 0.0057687 -0.175133
12 2 -45.3867 37.2526 -0.934135 0.845944 -2.9139 1.0261
13 2 -44.976 37.8413 -0.230995 -1.8678 -0.349849 -0.458136
14 2 -45.4279 38.4348 -0.920807 1.23897 -0.50777 2.32079
15 2 -45.1568 38.8368 -0.0395119 0.623022 1.08818 -1.29655
16 2 -45.8761 39.5591 -0.0118833 0.556311 -0.299807 -0.297899
17 2 -46.8151 39.4581 -0.358933 1.00676 1.41865 -0.70064
18 2 -47.063 39.1473 0.564654 1.01602 0.343737 1.01159
19 2 -46.6975 38.2627 0.875736 0.901681 -1.49352 1.11575
20 3 -46.0536 39.0325 0.950356 0.817966 1.20354 1.04454
ITEM: TIMESTEP
200000
ITEM: NUMBER OF ATOMS
20
ITEM: BOX BOUNDS pp pp ff
-1.5000000000000000e+01 1.5000000000000000e+01
-1.5000000000000000e+01 1.5000000000000000e+01
-1.5000000000000000e+01 1.5000000000000000e+01
ITEM: ATOMS id type xu yu zu vx vy vz
1 1 -42.1758 41.2364 -0.428633 -0.284764 -0.387984 -1.4604
2 2 -42.0626 40.5528 0.262033 -0.642211 0.606035 -1.12869
3 2 -42.9739 40.2325 0.506205 -0.182199 1.05901 1.31692
4 2 -43.9601 40.3251 0.617823 -0.0233183 0.0695428 0.188037
5 2 -44.2347 39.4879 0.156626 -0.384934 -0.396377 0.821813
6 2 -44.3855 38.7323 -0.529913 -0.662233 0.313225 -0.749967
7 2 -43.7659 38.1017 -1.00877 -1.25775 0.458279 -0.661238
8 2 -44.0688 37.1398 -0.876423 0.626994 1.80488 -1.15678
9 2 -44.3365 37.7821 -0.12898 -0.890628 0.158307 2.19811
10 2 -44.4255 37.5218 0.851735 0.207604 0.737638 1.69682
11 2 -43.6042 36.9611 0.708472 -0.0912374 0.447123 1.68543
12 2 -44.3232 36.7164 0.0731462 0.963158 -1.68895 0.200364
13 2 -45.2922 36.8553 -0.121513 0.766239 0.527625 -1.28378
14 2 -45.5171 37.2336 0.768936 2.23801 0.633558 -0.951055
15 2 -45.7532 38.1833 0.994097 0.878495 0.756878 1.55664
16 2 -45.6329 38.4132 0.02055 -0.374123 1.74922 0.819742
17 2 -45.8469 39.3935 -0.145053 1.01915 1.79721 1.16463
18 2 -46.6542 39.0894 -0.669805 -0.585865 -0.719744 0.748032
19 2 -47.0248 39.2145 0.238508 -0.360917 -0.246739 -0.44866
20 3 -47.1286 38.388 0.816525 -1.57769 0.699999 0.389592
ITEM: TIMESTEP
300000
ITEM: NUMBER OF ATOMS
20
ITEM: BOX BOUNDS pp pp ff
-1.5000000000000000e+01 1.5000000000000000e+01
-1.5000000000000000e+01 1.5000000000000000e+01
-1.5000000000000000e+01 1.5000000000000000e+01
ITEM: ATOMS id type xu yu zu vx vy vz
1 1 -40.131 40.6619 -0.685994 0.554233 -0.667714 0.00945369
2 2 -40.7678 40.5277 0.0502503 0.380973 -0.572725 0.912212
3 2 -41.4468 40.1251 -0.564188 0.159434 0.119687 0.0791015
4 2 -42.3866 40.2614 -0.277535 -0.0928913 -0.884989 -1.06085
5 2 -43.2078 40.3407 0.269725 0.264104 -2.61669 0.443952
6 2 -43.6733 39.4742 0.504842 1.1348 -0.926004 1.745
7 2 -43.7809 38.977 -0.38209 -1.35465 -0.318857 -0.707983
8 2 -42.8041 39.1552 -0.617284 0.0636095 -0.227141 -0.151531
9 2 -42.2366 38.4655 -0.147519 -1.46425 0.364604 -0.380387
10 2 -42.9145 37.7245 -0.227077 0.713511 1.82793 0.281401
11 2 -43.6131 37.0223 -0.168919 3.60192 0.324594 -0.376289
12 2 -44.2451 36.6894 0.53791 0.986155 0.459671 -0.717914
13 2 -44.7542 37.4615 0.930365 0.894847 -2.25584 0.685539
14 2 -45.4502 36.725 0.91895 -1.21729 -0.155393 1.03798
15 2 -46.2182 37.3739 0.948544 -0.346727 -1.57566 -1.57566
16 2 -46.1949 38.368 0.822462 -0.704417 -0.666106 0.949603
17 2 -46.5682 38.6262 -0.0736689 2.1154 -1.50113 -0.580598
18 2 -46.4453 39.4219 -0.667143 0.229521 0.388675 -1.64954
19 2 -47.4334 39.4484 -0.760062 0.0805694 1.25479 -1.55912
20 3 -48.3617 39.0647 -0.739066 0.541741 0.927532 -0.788719
ITEM: TIMESTEP
400000
ITEM: NUMBER OF ATOMS
20
ITEM: BOX BOUNDS pp pp ff
-1.5000000000000000e+01 1.5000000000000000e+01
-1.5000000000000000e+01 1.5000000000000000e+01
-1.5000000000000000e+01 1.5000000000000000e+01
ITEM: ATOMS id type xu yu zu vx vy vz
1 1 -40.0152 40.6792 -0.86761 -0.531457 -0.273656 0.188948
2 2 -39.2691 40.9725 -0.279303 0.0334972 1.33876 -0.441153
3 2 -39.9771 41.4567 0.234812 -1.30891 -1.48065 1.11662
4 2 -40.9857 41.3089 0.192321 0.0801522 -0.196398 0.098519
5 2 -41.9052 41.2939 0.580854 0.423731 1.0664 0.516494
6 2 -42.3687 41.4454 -0.312283 -0.191125 -0.705563 1.08887
7 2 -42.9969 40.7918 -0.707248 0.430399 -0.307519 -0.201809
8 2 -43.7709 40.2249 -0.362254 0.15674 -0.991963 0.370092
9 2 -44.2084 39.3329 -0.462561 -0.734149 0.234028 -0.405951
10 2 -43.3604 38.7775 -0.528044 -0.588181 -0.553871 1.36561
11 2 -43.046 37.8617 -0.313895 1.35888 0.324316 -0.648098
12 2 -43.3391 37.4283 0.523383 0.0276672 0.37017 0.679059
13 2 -44.2128 37.0011 0.801216 0.972802 1.58716 1.24603
14 2 -44.8818 36.4297 0.292083 -1.07807 -0.0643238 -0.932647
15 2 -45.8637 36.514 0.551736 0.698184 -0.626687 -0.508383
16 2 -46.4406 37.1307 -0.00903051 -0.0857432 -0.631512 -1.27724
17 2 -46.5752 37.3406 0.969643 -0.0694711 1.3814 -0.139776
18 2 -47.3602 37.7031 0.440897 0.531129 0.968891 -0.476466
19 2 -47.3147 38.0138 -0.509653 0.895519 0.305691 -0.590951
20 3 -46.3683 38.231 -0.229126 1.0734 0.0711583 -0.230853
ITEM: TIMESTEP
500000
ITEM: NUMBER OF ATOMS
20
ITEM: BOX BOUNDS pp pp ff
-1.5000000000000000e+01 1.5000000000000000e+01
-1.5000000000000000e+01 1.5000000000000000e+01
-1.5000000000000000e+01 1.5000000000000000e+01
ITEM: ATOMS id type xu yu zu vx vy vz
1 1 -42.4075 40.5653 -0.948085 -1.28516 -0.627737 -0.324191
2 2 -41.5476 40.4997 -0.455283 0.228703 0.104807 0.232881
3 2 -40.6995 41.0107 -0.373189 -0.937036 0.737676 1.06693
4 2 -41.2133 41.4376 0.38331 -0.54287 -1.60207 1.32709
5 2 -41.5851 42.0694 -0.302932 0.721669 1.16894 1.14235
6 2 -42.549 42.3536 -0.258136 -2.34924 -0.122443 -0.444135
7 2 -43.3517 41.7958 -0.424916 -0.173181 0.674638 -0.591025
8 2 -43.8262 40.9209 -0.535961 -0.405818 -1.07182 0.273381
9 2 -43.2569 40.2683 -0.0060748 0.383695 1.49105 0.136476
10 2 -43.698 39.4255 -0.292524 -0.710359 -1.25318 0.088502
11 2 -42.8789 38.9439 -0.537304 -1.00882 -0.826593 0.00233353
12 2 -43.0593 38.1513 0.0256078 0.532828 -0.00192393 1.10498
13 2 -44.0498 38.2375 0.0978829 1.44812 -0.62148 0.696663
14 2 -44.387 37.8208 -0.750276 -0.0476445 0.393525 2.52253
15 2 -45.0077 37.1088 -0.413604 -0.39547 0.765787 -0.0906146
16 2 -45.5783 37.0578 0.383845 1.12662 0.423212 0.969821
17 2 -45.4668 38.0419 0.464531 0.491414 -0.823691 -0.454449
18 2 -46.1569 38.7625 0.40968 -1.91439 0.637856 0.0917695
19 2 -47.0095 38.3494 0.0562186 -0.301868 -0.33874 -1.10999
20 3 -46.9582 39.2383 -0.412287 0.845322 -0.963463 0.266324
ITEM: TIMESTEP
600000
ITEM: NUMBER OF ATOMS
20
ITEM: BOX BOUNDS pp pp ff
-1.5000000000000000e+01 1.5000000000000000e+01
-1.5000000000000000e+01 1.5000000000000000e+01
-1.5000000000000000e+01 1.5000000000000000e+01
ITEM: ATOMS id type xu yu zu vx vy vz
1 1 -41.7651 39.1455 -0.832841 0.136284 -0.442985 0.190141
2 2 -42.4709 39.8676 -0.897783 -0.601154 -0.306394 0.45815
3 2 -41.7254 40.4032 -0.550058 0.0295777 -0.429181 1.95648
4 2 -41.3848 41.178 -0.0359708 -0.322947 1.18306 1.80727
5 2 -41.5579 41.8269 0.713903 -2.59893 0.121273 -0.450369
6 2 -42.2845 42.1169 0.0506428 -0.924034 -0.567636 0.329744
7 2 -42.6568 41.2004 0.214262 -2.61492 0.0736527 -2.24121
8 2 -43.4193 41.6002 -0.305333 1.62878 0.570937 -0.233799
9 2 -43.909 40.8052 0.0322464 0.366455 -0.132897 -1.44303
10 2 -43.2963 40.0378 0.144757 -0.291315 0.243125 -0.101862
11 2 -43.5504 39.0843 0.352 0.872236 1.10455 0.228925
12 2 -43.6281 38.3101 -0.273433 0.261773 -1.13895 -0.342646
13 2 -43.0178 37.6848 -0.813741 0.861952 -0.243614 -0.885396
14 2 -43.5933 37.2534 -0.0787058 2.00239 1.47279 -0.197166
15 2 -44.4319 37.6443 0.237296 -0.13278 0.0587532 -1.98821
16 2 -45.0117 36.9148 0.654335 -0.414025 -0.187318 -0.681725
17 2 -45.5169 37.7869 0.621013 0.235811 -0.313702 -0.493996
18 2 -45.7095 38.7061 0.238398 1.5166 -0.314604 0.999871
19 2 -46.5681 38.3918 -0.161187 -1.63687 -0.888247 -1.91772
20 3 -46.36 39.217 -0.637597 0.262964 0.866071 0.0552647
ITEM: TIMESTEP
700000
ITEM: NUMBER OF ATOMS
20
ITEM: BOX BOUNDS pp pp ff
-1.5000000000000000e+01 1.5000000000000000e+01
-1.5000000000000000e+01 1.5000000000000000e+01
-1.5000000000000000e+01 1.5000000000000000e+01
ITEM: ATOMS id type xu yu zu vx vy vz
1 1 -41.8793 38.358 0.149707 0.786968 0.387798 0.911153
2 2 -41.0807 38.9583 0.281709 -0.275437 0.17948 1.19947
3 2 -40.6475 39.7827 0.629496 0.0149537 1.12915 1.4212
4 2 -40.0676 40.0992 -0.148066 -0.532384 -1.15644 0.074275
5 2 -40.2933 40.938 0.37313 -0.515815 0.541114 1.25659
6 2 -40.7138 41.791 0.709739 -0.91022 1.25502 0.569221
7 2 -41.6891 41.5783 0.666457 -1.74202 -0.484212 -2.28108
8 2 -42.626 41.1829 0.622651 0.151036 0.251792 -1.91862
9 2 -42.4412 41.0951 -0.348722 0.924419 0.79623 0.476149
10 2 -43.4568 41.241 -0.247803 2.05591 0.81606 -0.985603
11 2 -44.0376 40.3982 -0.339224 0.309124 0.323873 1.36568
12 2 -44.1202 39.6242 -0.960714 1.15568 0.695951 -0.42835
13 2 -43.9583 38.983 -0.193054 0.35661 0.267419 -0.105958
14 2 -44.8206 38.5261 0.0860173 -1.48385 -0.0055363 0.215313
15 2 -45.326 38.014 0.766653 0.463446 -0.599801 0.233435
16 2 -46.0063 37.3073 0.527578 0.0863375 -0.850092 -0.164804
17 2 -45.8595 36.3595 0.278888 0.181988 -0.243188 1.00864
18 2 -46.6767 36.7205 -0.15268 -2.29553 0.699424 -1.27041
19 2 -46.6396 37.7037 -0.33393 0.223094 0.166739 -0.177392
20 3 -47.1132 38.3677 0.241147 -1.43665 -0.180601 0.570103
ITEM: TIMESTEP
800000
ITEM: NUMBER OF ATOMS
20
ITEM: BOX BOUNDS pp pp ff
-1.5000000000000000e+01 1.5000000000000000e+01
-1.5000000000000000e+01 1.5000000000000000e+01
-1.5000000000000000e+01 1.5000000000000000e+01
ITEM: ATOMS id type xu yu zu vx vy vz
1 1 -40.1855 38.0478 0.145202 0.0661045 1.40512 0.955577
2 2 -40.3221 38.6833 0.899096 0.901725 -1.4241 1.86794
3 2 -41.1417 38.7808 0.37022 1.16511 -0.205164 1.49656
4 2 -41.3872 39.3678 -0.413344 -0.708353 -1.39038 -1.10295
5 2 -40.827 39.9303 0.211069 0.970219 0.786199 1.34981
6 2 -40.976 40.6211 0.897594 2.09949 -0.0857101 -1.1324
7 2 -40.6662 41.4541 0.441501 -0.0577715 -0.651709 1.9499
8 2 -41.6645 41.449 0.574448 0.5829 0.578402 0.843632
9 2 -42.348 42.173 0.390137 -1.312 1.53795 0.393113
10 2 -42.8211 41.5433 -0.213985 -0.0872419 0.081279 -2.27342
11 2 -42.7467 40.6528 0.272996 -0.162203 0.140873 -0.892688
12 2 -42.3834 39.7707 -0.0858939 -2.17456 1.20065 0.587125
13 2 -43.3723 39.5812 -0.133116 -1.83193 -0.607835 -0.485553
14 2 -43.3993 38.5776 -0.0608359 1.49446 0.634385 -0.721697
15 2 -44.3447 38.882 0.13045 -0.969143 -0.870731 -0.546166
16 2 -44.8534 38.0063 0.0908531 0.893914 -2.0445 0.580145
17 2 -45.5116 37.2492 -0.0289094 1.18047 -1.72508 0.12038
18 2 -46.1394 37.7764 0.556866 0.763445 0.862693 -0.412188
19 2 -46.7843 37.0514 0.745807 -0.318128 -0.0841448 0.240446
20 3 -47.3723 37.6806 0.18602 0.945872 -0.741778 0.602079
ITEM: TIMESTEP
900000
ITEM: NUMBER OF ATOMS
20
ITEM: BOX BOUNDS pp pp ff
-1.5000000000000000e+01 1.5000000000000000e+01
-1.5000000000000000e+01 1.5000000000000000e+01
-1.5000000000000000e+01 1.5000000000000000e+01
ITEM: ATOMS id type xu yu zu vx vy vz
1 1 -39.6243 37.584 -0.757001 0.0515741 -0.140761 -1.35137
2 2 -40.2268 37.1108 -0.102389 1.76428 -0.267517 -1.85579
3 2 -40.0054 37.9398 0.375764 -0.0206998 0.356086 0.368987
4 2 -40.8079 38.1684 0.977718 0.0910907 -0.530862 -0.557744
5 2 -41.0396 38.7775 0.230685 0.0801954 1.48444 1.62201
6 2 -41.2714 39.6075 -0.293416 0.303309 -1.10805 0.431494
7 2 -40.9496 39.832 0.644466 -0.364326 -0.394814 -0.650519
8 2 -40.244 40.3792 0.174634 -0.751921 0.857539 1.48996
9 2 -40.0296 40.4232 -0.799808 0.134821 -0.10425 -0.492177
10 2 -41.0042 40.564 -0.563897 -1.22985 1.07908 -0.215763
11 2 -41.9565 40.7927 -0.532024 -0.121228 0.170184 0.110777
12 2 -42.4332 39.9557 -0.225817 0.437968 -0.478057 0.435931
13 2 -42.1029 39.1709 -0.777368 -0.269928 0.292161 1.71485
14 2 -42.4805 38.9827 0.118544 1.23508 1.41469 0.64266
15 2 -43.3131 39.1714 0.635198 -1.09121 -2.03164 -1.13638
16 2 -44.2527 39.139 0.984997 0.614277 1.02184 1.05999
17 2 -44.6115 38.6496 0.180547 -0.0241054 -0.131314 -0.941429
18 2 -45.2263 39.2327 -0.372522 0.926523 0.15185 0.168911
19 2 -45.5869 38.3733 -0.725131 0.393856 -1.07929 -1.45559
20 3 -46.085 37.5533 -0.506704 -0.713767 0.727319 -0.904918
ITEM: TIMESTEP
1000000
ITEM: NUMBER OF ATOMS
20
ITEM: BOX BOUNDS pp pp ff
-1.5000000000000000e+01 1.5000000000000000e+01
-1.5000000000000000e+01 1.5000000000000000e+01
-1.5000000000000000e+01 1.5000000000000000e+01
ITEM: ATOMS id type xu yu zu vx vy vz
1 1 -40.3283 36.141 -0.481784 -2.41131 -0.494114 -0.172368
2 2 -39.848 36.9056 -0.940817 1.4056 0.126612 0.335603
3 2 -39.7434 37.9031 -0.985861 0.0250476 0.642459 2.13335
4 2 -39.4581 38.4782 -0.214746 -0.542402 0.365225 0.0777552
5 2 -40.0214 38.2132 0.57521 -1.66711 -0.0938943 0.265489
6 2 -40.7439 38.8769 0.732291 -1.37987 -1.47837 -0.703014
7 2 -41.2615 39.0119 -0.128097 0.152782 -0.630125 1.79041
8 2 -40.2813 39.1473 -0.335082 0.0199513 -0.283811 -0.742445
9 2 -40.0216 40.0567 0.0497406 -0.920011 -0.69564 -0.651389
10 2 -40.6721 40.7787 0.277059 -0.919806 -1.05605 0.529582
11 2 -41.1489 40.7327 -0.605105 1.34344 0.256631 0.476206
12 2 -42.1104 40.982 -0.366884 -0.322815 -0.605645 -0.156647
13 2 -42.2007 40.0038 -0.530868 -3.64973e-05 0.0138443 -1.13588
14 2 -42.7247 39.1669 -0.714654 0.619518 0.431186 0.59142
15 2 -43.4081 38.9758 -0.00927123 1.42231 1.05057 -0.688313
16 2 -43.9274 38.134 -0.221549 0.320527 -0.17745 1.58934
17 2 -44.3827 38.8885 0.219361 0.333849 0.312242 -1.28171
18 2 -45.3318 39.0521 -0.0670443 1.20106 -1.96623 -0.36773
19 2 -44.854 39.807 -0.542601 0.132645 -0.71785 1.06576
20 3 -43.9455 39.5886 -0.91836 -2.46794 1.23333 0.174727
ITEM: TIMESTEP
1100000
ITEM: NUMBER OF ATOMS
20
ITEM: BOX BOUNDS pp pp ff
-1.5000000000000000e+01 1.5000000000000000e+01
-1.5000000000000000e+01 1.5000000000000000e+01
-1.5000000000000000e+01 1.5000000000000000e+01
ITEM: ATOMS id type xu yu zu vx vy vz
1 1 -39.8158 36.1713 0.220905 -0.850559 -0.91788 -0.835685
2 2 -39.1467 36.1176 -0.510624 2.03478 1.96842 -1.4173
3 2 -38.605 36.8916 -0.812279 -0.952132 0.493549 -0.375321
4 2 -39.0962 37.7567 -0.630576 -0.330087 0.481072 -0.388625
5 2 -38.8346 37.23 0.213584 1.53749 0.399782 -0.487062
6 2 -39.8212 37.2508 0.132214 -0.750545 -0.477294 0.698336
7 2 -40.6724 37.7626 0.283818 -1.58771 -1.99628 -0.998757
8 2 -40.6549 38.3311 -0.536054 1.12022 1.10866 -0.147223
9 2 -40.1983 39.0825 -0.0597727 -1.04296 0.483564 1.11533
10 2 -40.8627 39.6844 0.382476 0.595352 0.385674 0.167737
11 2 -40.4715 40.3965 -0.178603 0.217204 -0.414195 -2.01752
12 2 -41.311 40.566 -0.718186 0.109264 -1.47582 1.0415
13 2 -41.9229 40.1165 -0.059201 0.0293249 -1.27775 -0.40174
14 2 -41.9323 39.3178 0.543143 -0.183445 -0.098084 -0.545895
15 2 -42.1922 38.5 0.0179038 0.0198279 2.2062 1.0426
16 2 -43.0661 38.6273 0.44429 0.753821 -1.88261 1.17613
17 2 -43.6316 39.3945 0.142525 1.88064 0.992636 0.943729
18 2 -43.664 39.2402 -0.85298 -1.11806 -2.08995 0.453312
19 2 -44.6093 39.0727 -0.548319 -0.0795062 -0.598963 -0.0976518
20 3 -44.4281 40.049 -0.694553 1.15696 -1.40311 -0.436791
ITEM: TIMESTEP
1200000
ITEM: NUMBER OF ATOMS
20
ITEM: BOX BOUNDS pp pp ff
-1.5000000000000000e+01 1.5000000000000000e+01
-1.5000000000000000e+01 1.5000000000000000e+01
-1.5000000000000000e+01 1.5000000000000000e+01
ITEM: ATOMS id type xu yu zu vx vy vz
1 1 -38.7374 34.8753 -0.468819 1.29712 -0.403627 1.16285
2 2 -39.1616 35.7347 -0.246809 0.394955 0.374172 0.844528
3 2 -38.4411 36.2963 0.178138 -0.991088 -0.419693 -0.778428
4 2 -37.5126 35.9646 -0.0530379 1.6457 -0.844543 -0.955098
5 2 -37.0699 36.7794 -0.398466 1.21579 -0.703365 -2.1309
6 2 -37.5847 37.6593 -0.446945 -0.0797387 0.826529 -1.28619
7 2 -38.524 37.4857 -0.181652 1.30834 0.154377 -0.131818
8 2 -39.273 38.1195 0.0648942 -0.741618 -0.0727216 0.528576
9 2 -39.1594 39.1236 0.0554642 0.169569 1.26817 0.486564
10 2 -39.2639 40.1106 -0.0645631 1.31204 -0.291892 0.571789
11 2 -39.8859 40.7769 0.362985 0.0334214 -1.13473 -0.0651285
12 2 -40.7539 40.4332 0.725157 0.240059 -0.939363 -0.878014
13 2 -40.7068 39.9214 -0.123627 0.80038 0.915124 -0.29138
14 2 -41.6371 40.0771 0.152755 1.46913 -0.0508922 0.243552
15 2 -41.9606 39.2053 -0.258007 -0.46424 -0.485134 0.665395
16 2 -42.1027 38.6754 0.577079 0.283272 0.23277 0.638608
17 2 -43.0012 38.9351 0.191959 0.824453 -1.4572 1.30646
18 2 -43.7628 39.1671 -0.408472 2.06241 -0.108349 0.501475
19 2 -43.2237 40.0112 -0.35268 -0.650252 -0.537471 1.36116
20 3 -44.097 40.0434 -0.845712 1.20179 -0.121505 -1.12421
ITEM: TIMESTEP
1300000
ITEM: NUMBER OF ATOMS
20
ITEM: BOX BOUNDS pp pp ff
-1.5000000000000000e+01 1.5000000000000000e+01
-1.5000000000000000e+01 1.5000000000000000e+01
-1.5000000000000000e+01 1.5000000000000000e+01
ITEM: ATOMS id type xu yu zu vx vy vz
1 1 -39.8134 35.2812 -0.229122 0.414194 0.0519084 -1.01395
2 2 -39.2212 36.0919 -0.304022 -1.27722 -0.388813 -1.05869
3 2 -38.7445 36.5709 0.44558 -0.251793 0.408065 0.994718
4 2 -39.7431 36.5627 0.533596 0.475805 -0.502419 0.235875
5 2 -39.7933 37.3836 -0.0434645 -0.160027 1.47326 -1.1177
6 2 -38.8749 37.7205 0.0593914 -0.122253 -0.416368 -1.14573
7 2 -38.2067 37.9863 -0.644139 -0.614753 0.368429 0.392405
8 2 -38.7954 38.8005 -0.475591 -1.22303 -0.183229 -1.14469
9 2 -39.6715 38.3336 -0.642996 -0.689309 0.384494 1.21334
10 2 -39.7973 39.3366 -0.518209 -1.8784 -0.970096 0.241936
11 2 -40.0145 40.2244 -0.107747 -1.06106 0.245773 -0.60808
12 2 -40.3944 41.0782 0.27516 0.510453 -1.76405 -0.149872
13 2 -40.7509 41.387 -0.608545 -0.0176068 -0.359499 1.12263
14 2 -41.5894 40.8061 -0.541924 1.15348 -0.502878 -0.0320082
15 2 -41.6052 39.8039 -0.693772 -0.0599365 -0.380868 0.584611
16 2 -42.2122 39.3153 -0.0661736 0.836086 1.1513 -0.658129
17 2 -42.2892 38.4581 -0.558281 0.17772 -0.554789 0.0569378
18 2 -43.0461 37.8422 -0.661195 -0.924242 -0.48157 -0.221186
19 2 -43.3075 38.4408 0.130823 0.739711 1.35662 -0.00193751
20 3 -43.9147 38.8816 0.798009 1.26019 -0.502616 -1.15243
ITEM: TIMESTEP
1400000
ITEM: NUMBER OF ATOMS
20
ITEM: BOX BOUNDS pp pp ff
-1.5000000000000000e+01 1.5000000000000000e+01
-1.5000000000000000e+01 1.5000000000000000e+01
-1.5000000000000000e+01 1.5000000000000000e+01
ITEM: ATOMS id type xu yu zu vx vy vz
1 1 -38.8129 36.248 -0.0402142 0.0250705 -0.0262876 -0.98623
2 2 -39.277 36.6391 -0.848043 1.43567 -1.52318 0.519852
3 2 -39.5165 35.6663 -0.641081 0.601275 0.0305235 -0.41204
4 2 -40.071 36.3627 -0.189405 1.11359 -1.06992 1.30725
5 2 -40.7436 36.9502 -0.675669 -1.41787 -2.99577 0.540144
6 2 -40.1217 37.5744 -0.197533 0.93567 -0.34485 1.32108
7 2 -39.4881 37.8404 -0.947573 0.428838 1.84299 1.58519
8 2 -38.9897 38.2777 -0.198745 0.0203207 -0.0519283 -0.764225
9 2 -39.6329 38.5472 0.499687 -0.740971 -0.142211 2.61533
10 2 -38.764 39.0467 0.449522 0.0932732 -0.504541 0.00106421
11 2 -39.362 39.7605 0.114278 -1.27806 -2.23974 -0.174457
12 2 -39.294 39.1817 -0.670238 -0.357658 -1.00319 0.986411
13 2 -40.2517 39.3083 -0.36177 -0.178507 0.0518789 -0.916825
14 2 -40.6975 40.2064 -0.394185 0.515886 -1.03188 -0.641034
15 2 -41.4588 40.8285 -0.195331 0.282857 2.23769 -1.71039
16 2 -42.2994 40.4725 0.208613 2.26685 1.20033 0.295988
17 2 -41.9368 39.896 -0.532193 1.31592 -0.956165 0.249858
18 2 -41.7634 38.9297 -0.298279 1.13574 -1.36396 0.839232
19 2 -41.7302 38.0315 0.165168 0.705025 -0.34358 0.698029
20 3 -42.3202 37.2524 0.398627 -0.68711 -0.877494 -1.18101
ITEM: TIMESTEP
1500000
ITEM: NUMBER OF ATOMS
20
ITEM: BOX BOUNDS pp pp ff
-1.5000000000000000e+01 1.5000000000000000e+01
-1.5000000000000000e+01 1.5000000000000000e+01
-1.5000000000000000e+01 1.5000000000000000e+01
ITEM: ATOMS id type xu yu zu vx vy vz
1 1 -38.2849 36.2147 -0.073963 0.287171 1.17073 0.836252
2 2 -39.0088 36.1538 -0.760428 1.5118 -0.0395826 -0.493921
3 2 -39.3433 35.517 -0.0632716 -0.30481 -1.93968 -0.577838
4 2 -40.2187 35.3419 -0.500665 -0.468677 0.278288 0.127572
5 2 -41.074 35.9212 -0.584673 -0.214575 0.409269 0.779446
6 2 -40.8295 36.8523 -0.291365 0.927067 0.152932 0.0590171
7 2 -39.9787 37.0643 -0.771131 0.769788 1.26985 1.9672
8 2 -39.8141 38.0725 -0.663617 -0.78275 0.505722 -0.168669
9 2 -38.9473 38.5461 -0.404267 -0.925597 0.142798 0.645324
10 2 -38.7039 39.4741 -0.0596261 -0.739555 0.0114871 -1.56269
11 2 -39.6779 39.3523 0.162222 0.530574 -1.91689 0.5135
12 2 -39.8137 38.501 0.708634 -0.261013 0.230009 0.293713
13 2 -40.4377 38.6412 -0.054828 0.385547 0.683271 -0.188351
14 2 -40.6428 38.5935 -1.03126 -0.667343 1.80225 0.528269
15 2 -40.673 39.5573 -0.735331 -0.832998 -0.62385 -0.379187
16 2 -41.0098 40.459 -0.468349 -0.181796 -0.380962 1.47298
17 2 -41.744 41.0927 -0.35086 0.0330818 0.28996 -0.855604
18 2 -42.1189 40.1641 -0.37125 -0.424247 -1.50437 -2.31686
19 2 -41.4721 40 0.364514 0.960038 -1.2293 0.244287
20 3 -41.8903 39.1999 -0.0446897 0.000841566 1.79634 1.92258
ITEM: TIMESTEP
1600000
ITEM: NUMBER OF ATOMS
20
ITEM: BOX BOUNDS pp pp ff
-1.5000000000000000e+01 1.5000000000000000e+01
-1.5000000000000000e+01 1.5000000000000000e+01
-1.5000000000000000e+01 1.5000000000000000e+01
ITEM: ATOMS id type xu yu zu vx vy vz
1 1 -38.4951 36.3489 -0.920876 1.75744 -0.159736 0.745763
2 2 -39.3903 35.9657 -0.666577 -0.982348 0.594066 0.443885
3 2 -39.1432 36.8258 -0.227652 -1.90874 0.331333 -1.62272
4 2 -39.7581 37.0916 0.524885 0.911 0.317004 -0.508286
5 2 -40.6146 37.243 1.00341 0.534531 0.227147 -0.635456
6 2 -41.2399 36.9439 0.292774 -1.88353 -1.03855 -1.62356
7 2 -40.8382 37.6923 -0.22937 -0.361205 -0.406747 -2.80764
8 2 -39.982 38.1673 -0.487794 -1.45886 1.20483 1.34906
9 2 -39.1239 38.691 -0.535123 0.398732 -1.09697 0.133185
10 2 -38.8373 38.3833 0.386554 2.02464 -1.50062 0.443355
11 2 -39.258 39.2177 0.795349 -0.253585 0.621937 1.19047
12 2 -39.9503 39.9368 0.796965 -0.640791 -0.277146 0.0914774
13 2 -39.7533 40.4907 -0.0182819 -0.69922 -0.221193 -1.4963
14 2 -40.3595 39.7044 -0.15127 -0.115666 -1.10307 -0.374269
15 2 -40.8533 39.2486 0.575028 -1.15749 -0.0718879 -1.10349
16 2 -41.1084 38.9638 -0.335924 -1.34605 0.487932 -1.04688
17 2 -41.4638 39.7951 -0.755555 0.3616 -0.689834 -0.832618
18 2 -41.8332 40.7355 -0.649774 -1.87784 0.341123 2.02592
19 2 -41.6097 41.6073 -0.218777 0.892928 1.0446 -0.0743741
20 3 -41.2635 40.8163 0.293107 -0.175567 -0.841393 -1.34555
ITEM: TIMESTEP
1700000
ITEM: NUMBER OF ATOMS
20
ITEM: BOX BOUNDS pp pp ff
-1.5000000000000000e+01 1.5000000000000000e+01
-1.5000000000000000e+01 1.5000000000000000e+01
-1.5000000000000000e+01 1.5000000000000000e+01
ITEM: ATOMS id type xu yu zu vx vy vz
1 1 -38.6992 36.3893 -0.720016 0.928541 1.74723 -1.33588
2 2 -39.0805 35.6833 -0.114926 -0.550722 -1.34423 0.378604
3 2 -39.2574 36.6707 0.063129 0.298825 0.589071 2.43558
4 2 -38.982 37.4255 0.669529 -0.733259 -0.803495 -0.950614
5 2 -39.9301 37.1152 0.850115 -0.304859 0.502285 -1.9786
6 2 -40.5553 37.7484 0.430634 0.612025 -0.325859 -0.431552
7 2 -40.9743 36.9073 0.0807275 0.202171 -0.552754 -1.98312
8 2 -40.4735 37.4136 -0.634709 0.64353 -0.85346 -2.25601
9 2 -39.659 37.9424 -0.884997 0.0607024 -0.528752 -0.536231
10 2 -38.8155 38.1825 -0.425532 -0.87263 0.917527 0.772018
11 2 -38.368 38.4321 0.455314 -0.877355 -1.65579 1.91791
12 2 -39.1969 38.9652 0.259194 1.4547 0.405162 0.997834
13 2 -38.6917 39.6124 -0.274698 -0.437203 0.781592 -0.399949
14 2 -39.4167 40.2764 -0.468177 1.60308 0.235246 0.740618
15 2 -40.3396 40.1364 -0.817005 -0.797383 -2.21378 -0.264757
16 2 -40.9937 39.3944 -0.984764 0.842912 1.81338 0.969135
17 2 -41.7688 39.2682 -0.364635 -1.59344 0.185173 -1.81504
18 2 -41.5946 40.1822 0.0135201 2.22521 0.500297 0.230863
19 2 -42.1172 41.0532 -0.0551954 -1.68922 -0.146944 -1.33408
20 3 -42.4464 40.9502 0.881123 0.721096 1.10056 1.71316
ITEM: TIMESTEP
1800000
ITEM: NUMBER OF ATOMS
20
ITEM: BOX BOUNDS pp pp ff
-1.5000000000000000e+01 1.5000000000000000e+01
-1.5000000000000000e+01 1.5000000000000000e+01
-1.5000000000000000e+01 1.5000000000000000e+01
ITEM: ATOMS id type xu yu zu vx vy vz
1 1 -39.4615 35.1244 0.0648365 -1.6855 1.03918 1.04921
2 2 -38.4723 35.1524 0.270393 -0.962663 0.443965 -0.72405
3 2 -37.7828 35.8023 -0.109822 -1.01778 -1.09389 1.54835
4 2 -37.6527 35.9603 0.851639 0.219827 -0.961584 2.30898
5 2 -38.1538 36.812 0.696515 -0.369283 -1.92379 -0.637972
6 2 -38.6106 36.6028 -0.155896 0.596638 -0.947336 1.28489
7 2 -39.4999 37.0543 -0.210408 -1.78798 -1.36714 0.743401
8 2 -39.9172 36.8947 0.701818 0.0105135 -0.308292 -0.090526
9 2 -40.1307 37.871 0.711383 0.877758 -0.56505 0.685913
10 2 -40.2965 38.1895 -0.215117 0.214932 0.636669 0.547717
11 2 -39.3748 38.4332 0.0945788 0.187293 -0.619861 -1.33198
12 2 -38.8359 39.2976 0.0971591 -0.194835 2.78735 1.42602
13 2 -39.5842 39.8751 -0.26829 0.968521 -0.490768 0.58067
14 2 -40.0662 40.6616 -0.639005 0.654086 -0.710636 -1.02184
15 2 -40.8363 40.4521 -0.0648577 -0.346941 0.914186 -0.159206
16 2 -41.3095 39.9736 0.657988 1.28891 0.685435 1.02519
17 2 -42.1856 39.9823 0.138564 -1.07644 1.70233 -0.888785
18 2 -43.0406 40.4734 0.204943 1.23441 -0.651028 -0.384443
19 2 -42.6835 41.4089 0.0860053 0.550782 1.09031 -0.604917
20 3 -42.4067 41.9627 -0.715807 0.0840778 -0.727418 -0.544705
ITEM: TIMESTEP
1900000
ITEM: NUMBER OF ATOMS
20
ITEM: BOX BOUNDS pp pp ff
-1.5000000000000000e+01 1.5000000000000000e+01
-1.5000000000000000e+01 1.5000000000000000e+01
-1.5000000000000000e+01 1.5000000000000000e+01
ITEM: ATOMS id type xu yu zu vx vy vz
1 1 -40.5746 35.7491 -0.021941 0.144769 -1.02575 -1.41988
2 2 -39.5803 35.7791 0.0313601 -1.53843 0.279641 -0.548924
3 2 -38.7148 35.9465 0.532457 -1.28249 -0.174016 0.02421
4 2 -37.7867 36.1781 0.877142 -0.64964 -0.000773184 0.19133
5 2 -36.7884 36.2343 0.857368 -1.12388 2.26927 1.36257
6 2 -36.5512 37.218 0.702933 0.716043 -0.958245 1.04738
7 2 -36.7983 37.2236 -0.259908 1.22409 -1.01169 0.32254
8 2 -37.807 37.2257 -0.261721 -1.38569 -1.20248 -0.446122
9 2 -38.7258 37.6276 -0.1571 0.333361 -1.0185 0.676285
10 2 -39.7188 37.5479 0.0164965 0.518139 0.427446 0.854287
11 2 -39.8233 38.3631 -0.562828 0.801899 1.12349 -0.453061
12 2 -39.8901 38.8538 0.341853 1.29482 0.131437 1.04307
13 2 -39.9306 39.7517 -0.0667329 -0.676935 1.02002 -0.364441
14 2 -40.534 39.6941 0.742862 -0.703406 0.0354249 -0.53753
15 2 -41.0035 40.5183 0.450355 -0.204829 -1.22165 -1.29752
16 2 -41.9024 40.3021 0.858902 0.893055 0.456784 0.382443
17 2 -42.1405 39.3553 0.658861 -1.0727 -1.2099 0.0253361
18 2 -43.0654 39.1973 0.969238 -1.83006 1.63799 -1.06337
19 2 -43.0502 40.0007 0.373055 -0.364676 -0.683693 -0.251382
20 3 -43.7857 39.5556 -0.155195 -1.55156 1.03333 -1.21299
ITEM: TIMESTEP
2000000
ITEM: NUMBER OF ATOMS
20
ITEM: BOX BOUNDS pp pp ff
-1.5000000000000000e+01 1.5000000000000000e+01
-1.5000000000000000e+01 1.5000000000000000e+01
-1.5000000000000000e+01 1.5000000000000000e+01
ITEM: ATOMS id type xu yu zu vx vy vz
1 1 -39.7653 34.4511 0.216666 1.02437 -1.35043 -0.783095
2 2 -39.9335 35.4382 0.174547 -1.92477 -0.0127873 1.16084
3 2 -39.228 35.333 0.907621 -0.928143 1.91326 0.209944
4 2 -38.5035 34.847 0.407947 0.385878 1.09052 0.747183
5 2 -37.574 34.9258 0.755952 -2.22975 0.529068 0.36831
6 2 -37.58 35.1167 -0.216718 -0.278938 -1.53747 -0.574538
7 2 -37.4184 36.1025 -0.388251 1.20499 0.245888 0.784753
8 2 -37.563 36.9455 -0.900355 -1.15829 -1.08757 -0.725605
9 2 -38.5199 37.2554 -0.874765 -0.244269 0.684426 1.66092
10 2 -38.2189 37.5603 0.0334698 0.44889 -0.142449 1.14038
11 2 -38.2645 38.3949 -0.510992 0.159682 -0.61468 0.439509
12 2 -39.1628 38.7381 -0.226875 2.60859 0.513804 -1.64976
13 2 -39.8204 38.7728 0.532027 -0.0640054 0.476374 0.160574
14 2 -39.5207 39.6574 0.16551 -0.540222 -0.223334 0.439302
15 2 -40.1886 39.9729 -0.506914 -1.75947 -1.6358 -0.879848
16 2 -41.0704 39.9636 -0.0175007 -0.181994 -2.04325 -0.477713
17 2 -41.8563 39.7413 0.578463 -0.672033 -1.9355 1.1807
18 2 -42.4543 40.2397 -0.0480118 0.660447 -0.616202 -1.1532
19 2 -42.814 40.6201 0.827989 0.286022 0.774643 1.4253
20 3 -43.8097 40.5812 0.838527 1.44098 -0.403937 -0.475619
ITEM: TIMESTEP
2100000
ITEM: NUMBER OF ATOMS
20
ITEM: BOX BOUNDS pp pp ff
-1.5000000000000000e+01 1.5000000000000000e+01
-1.5000000000000000e+01 1.5000000000000000e+01