LAMMPS (23 Jun 2022 - Update 1)
# Setup
echo		        screen
Reading data file ...
  orthogonal box = (-16 -16 -0.5) to (16 16 0.5)
  2 by 2 by 1 MPI processor grid
  reading atoms ...
  255 atoms
  scanning bonds ...
  1 = max bonds/atom
  scanning angles ...
  1 = max angles/atom
  reading bonds ...
  2 bonds
  reading angles ...
  1 angles
Finding 1-2 1-3 1-4 neighbors ...
  special bond factors lj:    0        0        0       
  special bond factors coul:  0        0        0       
     2 = max # of 1-2 neighbors
     1 = max # of 1-3 neighbors
     1 = max # of 1-4 neighbors
     2 = max # of special neighbors
  special bonds CPU = 0.001 seconds
  read_data CPU = 0.011 seconds
1 atoms in group head
1 atoms in group end
3 atoms in group chain
252 atoms in group obs
Finding 1-2 1-3 1-4 neighbors ...
  special bond factors lj:    1        1        1       
  special bond factors coul:  1        1        1       
     2 = max # of 1-2 neighbors
     2 = max # of special neighbors
  special bonds CPU = 0.000 seconds
Generated 0 of 10 mixed pair_coeff terms from geometric mixing rule
Neighbor list info ...
  update every 1 steps, delay 0 steps, check yes
  max neighbors/atom: 2000, page size: 100000
  master list distance cutoff = 3.048
  ghost atom cutoff = 3.048
  binsize = 1.524, bins = 21 21 1
  3 neighbor lists, perpetual/occasional/extra = 3 0 0
  (1) pair lj/cut, perpetual, skip from (3)
      attributes: half, newton on
      pair build: skip
      stencil: none
      bin: none
  (2) pair soft, perpetual, skip from (3)
      attributes: half, newton on
      pair build: skip
      stencil: none
      bin: none
  (3) neighbor class addition, perpetual
      attributes: half, newton on
      pair build: half/bin/newton
      stencil: half/bin/2d
      bin: standard
WARNING: Communication cutoff adjusted to 3.048 (../comm.cpp:736)
Per MPI rank memory allocation (min/avg/max) = 7.465 | 7.536 | 7.748 Mbytes
   Step          Temp          E_pair         E_mol          TotEng         Press     
         0   0              0.0050598285   0.083914536    0.088974364   -0.12256963   
     10000   0.012908185    0.0061083923   0.0038316616   0.022797618   -0.05796605   
     20000   0.013906385    0.0078473044   0.0079808225   0.029679977    0.026795945  
     30000   0.010178188    0.0066328784   0.0044824811   0.021253633   -0.030782132  
     40000   0.018522333    0.0074951285   0.0079540896   0.033898915    0.012516312  
     50000   0.0035972467   0.0059989756   0.011955776    0.021537892   -0.06676892   
     60000   0.018956173    0.0071974612   0.0028876232   0.028966919   -0.0052160155 
     70000   0.0062622513   0.010104948    0.0043607871   0.020703428    0.11319095   
     80000   0.019563697    0.004506322    0.020509266    0.044502564   -0.16026271   
     90000   0.01291862     0.0065390412   0.0062248207   0.025631821   -0.041738328  
    100000   0.011994354    0.0087174017   0.0051968205   0.02586154     0.058946727  
    110000   0.011217902    0.0071689408   0.0022100432   0.020552894   -0.0055611762 
    120000   0.013843724    0.0088619681   0.0028915922   0.025542995    0.066730351  
    130000   0.0070841418   0.0068054771   0.0070407527   0.020902591   -0.037193641  
    140000   0.012349303    0.0085942461   0.0055120459   0.026407166    0.048393764  
    150000   0.029045242    0.0062903568   0.0045723777   0.039794074   -0.043711499  
    160000   0.015187255    0.0093496496   0.0071034707   0.031580818    0.086891512  
    170000   0.013812667    0.0054903611   0.020177216    0.039426077   -0.11715115   
    180000   0.029639459    0.005936282    0.012100268    0.047559776   -0.065161157  
    190000   0.011089559    0.008372869    0.0034926249   0.022911565    0.043104318  
    200000   0.0087304361   0.0072204894   0.0014318476   0.017348536   -0.004008296  
    210000   0.003610983    0.010237824    0.0078384917   0.021673138    0.11697541   
    220000   0.014666323    0.0074446682   0.0020912855   0.024144762    0.0084243286 
    230000   0.015767228    0.0060002758   0.010474542    0.032