LAMMPS (23 Jun 2022 - Update 1)
# Setup
echo		        screen
Reading data file ...
  orthogonal box = (-30 -30 -0.5) to (30 30 0.5)
  1 by 1 by 1 MPI processor grid
  reading atoms ...
  3 atoms
  scanning bonds ...
  1 = max bonds/atom
  scanning angles ...
  1 = max angles/atom
  reading bonds ...
  2 bonds
  reading angles ...
  1 angles
Finding 1-2 1-3 1-4 neighbors ...
  special bond factors lj:    0        0        0       
  special bond factors coul:  0        0        0       
     2 = max # of 1-2 neighbors
     1 = max # of 1-3 neighbors
     1 = max # of 1-4 neighbors
     2 = max # of special neighbors
  special bonds CPU = 0.000 seconds
  read_data CPU = 0.006 seconds
1 atoms in group head
1 atoms in group end
3 atoms in group bacteria
0 atoms in group obs
Finding 1-2 1-3 1-4 neighbors ...
  special bond factors lj:    1        1        1       
  special bond factors coul:  1        1        1       
     2 = max # of 1-2 neighbors
     2 = max # of special neighbors
  special bonds CPU = 0.000 seconds
Generated 0 of 10 mixed pair_coeff terms from geometric mixing rule
Neighbor list info ...
  update every 1 steps, delay 0 steps, check yes
  max neighbors/atom: 2000, page size: 100000
  master list distance cutoff = 2.62246
  ghost atom cutoff = 3
  binsize = 1.31123, bins = 46 46 1
  1 neighbor lists, perpetual/occasional/extra = 1 0 0
  (1) pair lj/cut, perpetual
      attributes: half, newton on
      pair build: half/bin/newton
      stencil: half/bin/2d
      bin: standard
Per MPI rank memory allocation (min/avg/max) = 6.186 | 6.186 | 6.186 Mbytes
   Step          Temp          E_pair         E_mol          TotEng         Press     
         0   0              147.28905      1289.9712      1437.2602      1.2343731    
     20000   1.3089309      0.67396818     0.18459899     1.7311877      0.0069269718 
     40000   2.9487829      0.69533825     0.52071628     3.1819098      0.0084105246 
     60000   0.80167828     0.55617726     0.24792683     1.3385563     -0.010499707  
     80000   2.4233648      0.51976943     0.30015126     2.4354972     -0.01591044   
    100000   0.58927014     0.55453325     0.35059336     1.2979734     -0.010762995  
    120000   0.85441122     0.5596923      0.45868238     1.5879822     -0.011939412  
    140000   2.6016722      0.60804543     1.2578922      3.6003857     -0.0077993061 
    160000   0.71329736     0.65081347     0.045486116    1.1718312      0.0046345869 
    180000   2.4414849      0.67042684     0.37870806     2.6767915      0.005492206  
    200000   2.6180198      0.55026051     0.20461758     2.5002247     -0.010321956  
    220000   0.91219282     0.5968864      0.14894688     1.3539618     -0.0039504318 
    240000   0.2629733      0.62418982     0.25594208     1.0554474     -0.00125359   
    260000   0.32148378     0.65509045     0.26833613     1.1377491      0.0029508913 
    280000   1.4697176      0.4388083      0.79704652     2.2156665     -0.032003914  
    300000   0.85346435     0.50252408     0.59524367     1.666744      -0.02071711   
    320000   1.0017744      0.63354736     0.27860226     1.5799992      0.00012056229
    340000   1.1837132      0.75215885     0.16064269     1.7019437      0.018403654  
    360000   0.68247504     0.63550837     0.065575616    1.1560673      0.0023285407 
    380000   3.7437528      0.55570812     0.39668183     3.4482252     -0.0087949011 
    400000   2.6028218      0.6977609      0.33186439     2.7648398      0.010048929  
    420000   2.1706981      0.6784057      0.081815738    2.2073535      0.0088628718 
    440000   1.6346276      0.5496044      0.28842109     1.9277772     -0.010983675  
    460000   0.64042337     0.5947938      1.7322771      2.7540198     -0.0088689403 
    480000   1.8475135      0.47678408     0.55019396     2.2586537     -0.024290555  
    500000   1.5028051      0.53534384     1.061205       2.5984189     -0.019986353  
    520000   1.9191834      0.5289816      0.61466822     2.4231054     -0.015163978  
    540000   1.3748326      0.59581959     0.084952621    1.597327